 Gaussian 09, Revision D.01,
 Gaussian 09:  EM64L-G09RevD.01 24-Apr-2013

 ------------------------------------------------------------
 #P PBE1PBE/gen scrf(pcm,solvent=diethylether) scf(tight) opt
 ------------------------------------------------------------

 -------
 acetate
 -------
 Symbolic Z-matrix:
 Charge = -1 Multiplicity = 1

 SCF Done:  E(RPBE1PBE) =  -228.078571573     A.U. after   12 cycles
 SCF Done:  E(RPBE1PBE) =  -228.127557941     A.U. after   11 cycles
 SCF Done:  E(RPBE1PBE) =  -228.149748921     A.U. after   11 cycles
 SCF Done:  E(RPBE1PBE) =  -228.152291616     A.U. after   11 cycles
 SCF Done:  E(RPBE1PBE) =  -228.152799932     A.U. after   10 cycles
 SCF Done:  E(RPBE1PBE) =  -228.152826439     A.U. after    9 cycles
 SCF Done:  E(RPBE1PBE) =  -228.152829621     A.U. after    8 cycles
 Optimization completed.
    -- Stationary point found.

                         Standard orientation:
 ---------------------------------------------------------------------
 Center     Atomic      Atomic             Coordinates (Angstroms)
 Number     Number       Type             X           Y           Z
 ---------------------------------------------------------------------
      1          8           0        1.091654    0.812472    0.000000
      2          6           0        0.000000    0.206718    0.000000
      3          8           0       -1.151225    0.693698    0.000000
      4          6           0        0.056660   -1.346098    0.000000
      5          1           0        1.090832   -1.732507    0.000000
      6          1           0       -0.477112   -1.740284    0.885105
      7          1           0       -0.477112   -1.740284   -0.885105
 ---------------------------------------------------------------------

 The electronic state is 1-A'.
 Alpha  occ. eigenvalues --  -19.05812 -19.05559 -10.22917 -10.15482  -0.95203
 Alpha  occ. eigenvalues --   -0.86109  -0.65727  -0.42887  -0.37592  -0.36563
 Alpha  occ. eigenvalues --   -0.35657  -0.31565  -0.29431  -0.17589  -0.16460
 Alpha  occ. eigenvalues --   -0.15737
 Alpha virt. eigenvalues --    0.13636   0.14303   0.19455   0.21823   0.30267
 Alpha virt. eigenvalues --    0.35423   0.43824   0.53690   0.61269   0.63631
 Alpha virt. eigenvalues --    0.63639   0.66627   0.73079   0.75257   0.77518

 Mulliken charges:
               1
     1  O   -0.476095
     2  C    0.087600
     3  O   -0.487975
     4  C   -0.400179
     5  H    0.080055
     6  H    0.098297
     7  H    0.098297
 Sum of Mulliken charges =  -1.00000

 Dipole moment (field-independent basis, Debye):
    X=              0.1040    Y=             -3.8941    Z=              0.0000  Tot=              3.8955
 Quadrupole moment (field-independent basis, Debye-Ang):
   XX=            -33.5810   YY=            -30.2439   ZZ=            -24.2315
   XY=             -0.0291   XZ=              0.0000   YZ=              0.0000

 Normal termination of Gaussian 09 at Wed Oct 14 11:16:46 2015.
