 Gaussian 09, Revision D.01,
 Gaussian 09:  EM64L-G09RevD.01 24-Apr-2013

 ------------------
 #P PBE1PBE/gen opt
 ------------------

 -------
 acetate
 -------
 Symbolic Z-matrix:
 Charge = -1 Multiplicity = 1

 SCF Done:  E(RPBE1PBE) =  -227.993861253     A.U. after   15 cycles
 SCF Done:  E(RPBE1PBE) =  -228.044487675     A.U. after   14 cycles
 SCF Done:  E(RPBE1PBE) =  -228.069137910     A.U. after   14 cycles
 SCF Done:  E(RPBE1PBE) =  -228.073072216     A.U. after   13 cycles
 SCF Done:  E(RPBE1PBE) =  -228.073690494     A.U. after   12 cycles
 SCF Done:  E(RPBE1PBE) =  -228.073727329     A.U. after    9 cycles
 SCF Done:  E(RPBE1PBE) =  -228.073730442     A.U. after    8 cycles
 Optimization completed.
    -- Stationary point found.

                         Standard orientation:
 ---------------------------------------------------------------------
 Center     Atomic      Atomic             Coordinates (Angstroms)
 Number     Number       Type             X           Y           Z
 ---------------------------------------------------------------------
      1          8           0        1.104354    0.796913    0.000000
      2          6           0        0.000000    0.221092    0.000000
      3          8           0       -1.150935    0.700263    0.000000
      4          6           0        0.045841   -1.348320    0.000000
      5          1           0        1.081286   -1.735400    0.000000
      6          1           0       -0.491847   -1.739318    0.886127
      7          1           0       -0.491847   -1.739318   -0.886127
 ---------------------------------------------------------------------

 The electronic state is 1-A'.
 Alpha  occ. eigenvalues --  -18.91058 -18.90804 -10.08429 -10.02565  -0.80448
 Alpha  occ. eigenvalues --   -0.71623  -0.52259  -0.28662  -0.24097  -0.23130
 Alpha  occ. eigenvalues --   -0.20968  -0.17189  -0.15272  -0.02704  -0.01565
 Alpha  occ. eigenvalues --   -0.01037
 Alpha virt. eigenvalues --    0.25352   0.27949   0.31395   0.34719   0.43248
 Alpha virt. eigenvalues --    0.50036   0.58405   0.66685   0.74358   0.76340
 Alpha virt. eigenvalues --    0.77923   0.81277   0.86355   0.88410   0.90042

 Mulliken charges:
               1
     1  O   -0.453454
     2  C    0.117382
     3  O   -0.464680
     4  C   -0.388949
     5  H    0.055430
     6  H    0.067135
     7  H    0.067135
 Sum of Mulliken charges =  -1.00000

 Dipole moment (field-independent basis, Debye):
    X=              0.0628    Y=             -3.0993    Z=              0.0000  Tot=              3.1000
 Quadrupole moment (field-independent basis, Debye-Ang):
   XX=            -33.5634   YY=            -31.1264   ZZ=            -24.4549
   XY=              0.0167   XZ=              0.0000   YZ=              0.0000

 Normal termination of Gaussian 09 at Tue Oct  6 16:19:48 2015.
