 Gaussian 09, Revision D.01,
 Gaussian 09:  EM64L-G09RevD.01 24-Apr-2013

 ------------------
 #P PBE1PBE/gen opt
 ------------------

 --------
 ammonium
 --------
 Symbolic Z-matrix:
 Charge =  1 Multiplicity = 1

 SCF Done:  E(RPBE1PBE) =  -56.7579734996     A.U. after    8 cycles
 SCF Done:  E(RPBE1PBE) =  -56.7658550614     A.U. after    8 cycles
 SCF Done:  E(RPBE1PBE) =  -56.7658588140     A.U. after    5 cycles
 Optimization completed.
    -- Stationary point found.

                         Standard orientation:
 ---------------------------------------------------------------------
 Center     Atomic      Atomic             Coordinates (Angstroms)
 Number     Number       Type             X           Y           Z
 ---------------------------------------------------------------------
      1          7           0        0.000000    0.000000    0.000000
      2          1           0        0.597461    0.597461    0.597461
      3          1           0       -0.597461   -0.597461    0.597461
      4          1           0       -0.597461    0.597461   -0.597461
      5          1           0        0.597461   -0.597461   -0.597461
 ---------------------------------------------------------------------

 The electronic state is 1-A1.
 Alpha  occ. eigenvalues --  -14.75755  -1.25955  -0.83907  -0.83907  -0.83907
 Alpha virt. eigenvalues --   -0.20454  -0.12212  -0.12212  -0.12212   0.21863
 Alpha virt. eigenvalues --    0.21863   0.21863   0.40672   0.56172   0.56172
 Alpha virt. eigenvalues --    0.56172   0.76316   1.68540   1.68540   2.21176

 Mulliken charges:
               1
     1  N   -0.516957
     2  H    0.379239
     3  H    0.379239
     4  H    0.379239
     5  H    0.379239
 Sum of Mulliken charges =   1.00000

 Dipole moment (field-independent basis, Debye):
    X=              0.0000    Y=              0.0000    Z=              0.0000  Tot=              0.0000
 Quadrupole moment (field-independent basis, Debye-Ang):
   XX=             -4.3833   YY=             -4.3833   ZZ=             -4.3833
   XY=              0.0000   XZ=              0.0000   YZ=              0.0000

 Normal termination of Gaussian 09 at Tue Oct  6 16:14:30 2015.
