 Gaussian 09, Revision D.01,
 Gaussian 09:  EM64L-G09RevD.01 24-Apr-2013

 ------------------------------------------------------------
 #P PBE1PBE/gen scrf(pcm,solvent=diethylether) scf(tight) opt
 ------------------------------------------------------------

 --------
 ammonium
 --------
 Symbolic Z-matrix:
 Charge =  1 Multiplicity = 1

 SCF Done:  E(RPBE1PBE) =  -56.8461393929     A.U. after    6 cycles
 SCF Done:  E(RPBE1PBE) =  -56.8553322783     A.U. after    6 cycles
 SCF Done:  E(RPBE1PBE) =  -56.8553362918     A.U. after    5 cycles
 Optimization completed.
    -- Stationary point found.

                         Standard orientation:
 ---------------------------------------------------------------------
 Center     Atomic      Atomic             Coordinates (Angstroms)
 Number     Number       Type             X           Y           Z
 ---------------------------------------------------------------------
      1          7           0        0.000000    0.000000    0.000000
      2          1           0        0.595173    0.595173    0.595173
      3          1           0       -0.595173   -0.595173    0.595173
      4          1           0       -0.595173    0.595173   -0.595173
      5          1           0        0.595173   -0.595173   -0.595173
 ---------------------------------------------------------------------

 The electronic state is 1-A1.
 Alpha  occ. eigenvalues --  -14.57749  -1.08208  -0.66123  -0.66123  -0.66123
 Alpha virt. eigenvalues --   -0.02988   0.05162   0.05162   0.05162   0.39687
 Alpha virt. eigenvalues --    0.39687   0.39687   0.58611   0.73844   0.73844
 Alpha virt. eigenvalues --    0.73844   0.94275   1.86336   1.86336   2.39496

 Mulliken charges:
               1
     1  N   -0.498058
     2  H    0.374514
     3  H    0.374514
     4  H    0.374514
     5  H    0.374514
 Sum of Mulliken charges =   1.00000

 Dipole moment (field-independent basis, Debye):
    X=              0.0000    Y=              0.0000    Z=              0.0000  Tot=              0.0000
 Quadrupole moment (field-independent basis, Debye-Ang):
   XX=             -4.4032   YY=             -4.4032   ZZ=             -4.4032
   XY=              0.0000   XZ=              0.0000   YZ=              0.0000

 Normal termination of Gaussian 09 at Wed Oct 14 11:16:26 2015.
