 Gaussian 09, Revision D.01,
 Gaussian 09:  EM64L-G09RevD.01 24-Apr-2013

 ------------------------------------------------------------
 #P PBE1PBE/gen scrf(pcm,solvent=diethylether) scf(tight) opt
 ------------------------------------------------------------

 ---------
 cis-mesno
 ---------
 Symbolic Z-matrix:
 Charge =  0 Multiplicity = 1

 SCF Done:  E(RPBE1PBE) =  -567.320566842     A.U. after   14 cycles
 SCF Done:  E(RPBE1PBE) =  -567.371256497     A.U. after   12 cycles
 SCF Done:  E(RPBE1PBE) =  -567.387954354     A.U. after   13 cycles
 SCF Done:  E(RPBE1PBE) =  -567.409322782     A.U. after   12 cycles
 SCF Done:  E(RPBE1PBE) =  -567.411535475     A.U. after   11 cycles
 SCF Done:  E(RPBE1PBE) =  -567.412555818     A.U. after   11 cycles
 SCF Done:  E(RPBE1PBE) =  -567.412898680     A.U. after   11 cycles
 SCF Done:  E(RPBE1PBE) =  -567.412992689     A.U. after   11 cycles
 SCF Done:  E(RPBE1PBE) =  -567.413002048     A.U. after   10 cycles
 SCF Done:  E(RPBE1PBE) =  -567.413002547     A.U. after    8 cycles
 Optimization completed.
    -- Stationary point found.

                         Standard orientation:
 ---------------------------------------------------------------------
 Center     Atomic      Atomic             Coordinates (Angstroms)
 Number     Number       Type             X           Y           Z
 ---------------------------------------------------------------------
      1          8           0       -0.787867   -1.473328    0.000000
      2          7           0       -1.198086   -0.359704    0.000000
      3         16           0        0.000000    0.926825    0.000000
      4          6           0        1.525957    0.001358    0.000000
      5          1           0        2.350501    0.732023    0.000000
      6          1           0        1.591645   -0.632409    0.899866
      7          1           0        1.591645   -0.632409   -0.899866
 ---------------------------------------------------------------------

 The electronic state is 1-A'.
 Alpha  occ. eigenvalues --  -89.03666 -19.28017 -14.52613 -10.26466  -8.03934
 Alpha  occ. eigenvalues --   -5.98146  -5.97650  -5.97268  -1.21063  -0.85055
 Alpha  occ. eigenvalues --   -0.73615  -0.60922  -0.52778  -0.49974  -0.49165
 Alpha  occ. eigenvalues --   -0.44872  -0.43500  -0.37333  -0.28310  -0.25213
 Alpha virt. eigenvalues --   -0.07970   0.01290   0.06542   0.11108   0.12754
 Alpha virt. eigenvalues --    0.13134   0.29529   0.38222   0.40281   0.42922
 Alpha virt. eigenvalues --    0.47053   0.55260   0.60796   0.61951   0.64782

 Mulliken charges:
               1
     1  O   -0.192550
     2  N   -0.040153
     3  S    0.115737
     4  C   -0.471199
     5  H    0.198951
     6  H    0.194606
     7  H    0.194606
 Sum of Mulliken charges =   0.00000

 Dipole moment (field-independent basis, Debye):
    X=              2.7307    Y=              0.7620    Z=              0.0000  Tot=              2.8350
 Quadrupole moment (field-independent basis, Debye-Ang):
   XX=            -29.2013   YY=            -32.9737   ZZ=            -29.8163
   XY=             -0.3898   XZ=              0.0000   YZ=              0.0000

 Normal termination of Gaussian 09 at Wed Oct 14 11:17:19 2015.
