 Gaussian 09, Revision D.01,
 Gaussian 09:  EM64L-G09RevD.01 24-Apr-2013

 ------------------
 #P PBE1PBE/gen opt
 ------------------

 ---------
 cis-mesno
 ---------
 Symbolic Z-matrix:
 Charge =  0 Multiplicity = 1

 SCF Done:  E(RPBE1PBE) =  -567.313940149     A.U. after   19 cycles
 SCF Done:  E(RPBE1PBE) =  -567.366209545     A.U. after   14 cycles
 SCF Done:  E(RPBE1PBE) =  -567.381064395     A.U. after   16 cycles
 SCF Done:  E(RPBE1PBE) =  -567.406344637     A.U. after   15 cycles
 SCF Done:  E(RPBE1PBE) =  -567.408737717     A.U. after   14 cycles
 SCF Done:  E(RPBE1PBE) =  -567.410012349     A.U. after   14 cycles
 SCF Done:  E(RPBE1PBE) =  -567.410441591     A.U. after   14 cycles
 SCF Done:  E(RPBE1PBE) =  -567.410566876     A.U. after   11 cycles
 SCF Done:  E(RPBE1PBE) =  -567.410579832     A.U. after   10 cycles
 SCF Done:  E(RPBE1PBE) =  -567.410580616     A.U. after    8 cycles
 Optimization completed.
    -- Stationary point found.

                         Standard orientation:
 ---------------------------------------------------------------------
 Center     Atomic      Atomic             Coordinates (Angstroms)
 Number     Number       Type             X           Y           Z
 ---------------------------------------------------------------------
      1          8           0       -0.776994   -1.476640    0.000000
      2          7           0       -1.203153   -0.374585    0.000000
      3         16           0        0.000000    0.936939    0.000000
      4          6           0        1.520090   -0.000080    0.000000
      5          1           0        2.353764    0.720403    0.000000
      6          1           0        1.581859   -0.637861    0.897728
      7          1           0        1.581859   -0.637861   -0.897728
 ---------------------------------------------------------------------

 The electronic state is 1-A'.
 Alpha  occ. eigenvalues --  -89.03393 -19.28384 -14.52814 -10.27083  -8.03666
 Alpha  occ. eigenvalues --   -5.97872  -5.97398  -5.96986  -1.21619  -0.84783
 Alpha  occ. eigenvalues --   -0.73622  -0.61203  -0.53030  -0.50193  -0.49185
 Alpha  occ. eigenvalues --   -0.45379  -0.44088  -0.37569  -0.28171  -0.25145
 Alpha virt. eigenvalues --   -0.07905   0.00815   0.05914   0.10503   0.11781
 Alpha virt. eigenvalues --    0.12325   0.29692   0.38185   0.39749   0.42492
 Alpha virt. eigenvalues --    0.47024   0.55251   0.60393   0.62058   0.64680

 Mulliken charges:
               1
     1  O   -0.170587
     2  N   -0.021954
     3  S    0.101277
     4  C   -0.470131
     5  H    0.185840
     6  H    0.187778
     7  H    0.187778
 Sum of Mulliken charges =   0.00000

 Dipole moment (field-independent basis, Debye):
    X=              2.2600    Y=              0.4982    Z=              0.0000  Tot=              2.3143
 Quadrupole moment (field-independent basis, Debye-Ang):
   XX=            -29.3501   YY=            -32.8284   ZZ=            -29.9416
   XY=             -0.3184   XZ=              0.0000   YZ=              0.0000

 Normal termination of Gaussian 09 at Thu Sep 17 12:30:33 2015.
