 Gaussian 09, Revision D.01,
 Gaussian 09:  EM64L-G09RevD.01 24-Apr-2013

 ------------------------
 #P b3lyp/aug-cc-pvdz opt
 ------------------------

 ---------
 cis-mesno
 ---------
 Symbolic Z-matrix:
 Charge =  0 Multiplicity = 1

 SCF Done:  E(RB3LYP) =  -567.958191195     A.U. after   15 cycles
 SCF Done:  E(RB3LYP) =  -568.005663812     A.U. after   12 cycles
 SCF Done:  E(RB3LYP) =  -568.032843130     A.U. after   13 cycles
 SCF Done:  E(RB3LYP) =  -568.044928176     A.U. after   11 cycles
 SCF Done:  E(RB3LYP) =  -568.046443607     A.U. after   11 cycles
 SCF Done:  E(RB3LYP) =  -568.047446989     A.U. after   12 cycles
 SCF Done:  E(RB3LYP) =  -568.047700929     A.U. after   11 cycles
 SCF Done:  E(RB3LYP) =  -568.047768295     A.U. after   11 cycles
 SCF Done:  E(RB3LYP) =  -568.047775080     A.U. after    9 cycles
 SCF Done:  E(RB3LYP) =  -568.047775821     A.U. after    9 cycles
 Optimization completed.
    -- Stationary point found.

                         Standard orientation:
 ---------------------------------------------------------------------
 Center     Atomic      Atomic             Coordinates (Angstroms)
 Number     Number       Type             X           Y           Z
 ---------------------------------------------------------------------
      1          8           0       -0.783136   -1.511035    0.000000
      2          7           0       -1.233652   -0.411207    0.000000
      3         16           0        0.000000    0.961878    0.000000
      4          6           0        1.551700    0.011960    0.000000
      5          1           0        2.372974    0.738043    0.000000
      6          1           0        1.608741   -0.616563    0.896959
      7          1           0        1.608741   -0.616563   -0.896959
 ---------------------------------------------------------------------

 The electronic state is 1-A'.
 Alpha  occ. eigenvalues --  -88.91828 -19.23863 -14.49102 -10.23307  -7.97846
 Alpha  occ. eigenvalues --   -5.94231  -5.93814  -5.93385  -1.20462  -0.81913
 Alpha  occ. eigenvalues --   -0.72274  -0.61581  -0.51614  -0.49043  -0.48253
 Alpha  occ. eigenvalues --   -0.44374  -0.43172  -0.36688  -0.27451  -0.25421
 Alpha virt. eigenvalues --   -0.10352  -0.03009  -0.01160   0.01154   0.02147
 Alpha virt. eigenvalues --    0.02269   0.05504   0.06926   0.07923   0.08075
 Alpha virt. eigenvalues --    0.08180   0.08618   0.11089   0.11580   0.13338

 Mulliken charges:
               1
     1  O   -0.380459
     2  N   -0.024965
     3  S    0.425928
     4  C    0.650116
     5  H   -0.265701
     6  H   -0.202459
     7  H   -0.202459
 Sum of Mulliken charges =   0.00000

 Dipole moment (field-independent basis, Debye):
    X=              2.1626    Y=              0.2979    Z=              0.0000  Tot=              2.1830
 Quadrupole moment (field-independent basis, Debye-Ang):
   XX=            -29.5433   YY=            -33.4569   ZZ=            -30.8295
   XY=             -0.3528   XZ=              0.0000   YZ=              0.0000

 Normal termination of Gaussian 09 at Mon Sep 21 22:16:00 2015.
