 Gaussian 09, Revision D.01,
 Gaussian 09:  EM64L-G09RevD.01 24-Apr-2013

 ------------------------
 #P b3lyp/aug-cc-pvdz opt
 ------------------------

 ---
 ClF
 ---
 Symbolic Z-matrix:
 Charge =  0 Multiplicity = 1

 SCF Done:  E(RB3LYP) =  -559.990673075     A.U. after    9 cycles
 SCF Done:  E(RB3LYP) =  -559.991728467     A.U. after    8 cycles
 SCF Done:  E(RB3LYP) =  -559.991831553     A.U. after    8 cycles
 Optimization completed.
    -- Stationary point found.

                         Standard orientation:
 ---------------------------------------------------------------------
 Center     Atomic      Atomic             Coordinates (Angstroms)
 Number     Number       Type             X           Y           Z
 ---------------------------------------------------------------------
      1         17           0        0.000000    0.000000    0.579420
      2          9           0        0.000000    0.000000   -1.094460
 ---------------------------------------------------------------------

 The electronic state is 1-SG.
 Alpha  occ. eigenvalues -- -101.64341 -24.77118  -9.55370  -7.32298  -7.30371
 Alpha  occ. eigenvalues --   -7.30371  -1.24316  -0.84862  -0.54217  -0.48915
 Alpha  occ. eigenvalues --   -0.48915  -0.34453  -0.34453
 Alpha virt. eigenvalues --   -0.14602   0.03700   0.06831   0.06831   0.06999
 Alpha virt. eigenvalues --    0.16408   0.18837   0.18837   0.28904   0.28905
 Alpha virt. eigenvalues --    0.33917   0.35463   0.35463   0.45790   0.66592

 Mulliken charges:
               1
     1  Cl   0.365214
     2  F   -0.365214
 Sum of Mulliken charges =   0.00000

 Dipole moment (field-independent basis, Debye):
    X=              0.0000    Y=              0.0000    Z=              0.9948  Tot=              0.9948
 Quadrupole moment (field-independent basis, Debye-Ang):
   XX=            -17.6190   YY=            -17.6190   ZZ=            -16.2225
   XY=              0.0000   XZ=              0.0000   YZ=              0.0000

 Normal termination of Gaussian 09 at Thu Oct  1 12:04:47 2015.
