 Gaussian 09, Revision D.01,
 Gaussian 09:  EM64L-G09RevD.01 24-Apr-2013

 ------------------
 #P PBE1PBE/gen opt
 ------------------

 ------------
 formaldehyde
 ------------
 Symbolic Z-matrix:
 Charge =  0 Multiplicity = 1

 SCF Done:  E(RPBE1PBE) =  -114.277140512     A.U. after   11 cycles
 SCF Done:  E(RPBE1PBE) =  -114.279354817     A.U. after   11 cycles
 SCF Done:  E(RPBE1PBE) =  -114.279532220     A.U. after   10 cycles
 SCF Done:  E(RPBE1PBE) =  -114.279533043     A.U. after    7 cycles
 Optimization completed.
    -- Stationary point found.

                         Standard orientation:
 ---------------------------------------------------------------------
 Center     Atomic      Atomic             Coordinates (Angstroms)
 Number     Number       Type             X           Y           Z
 ---------------------------------------------------------------------
      1          6           0        0.000000    0.000000   -0.522617
      2          8           0        0.000000    0.000000    0.672935
      3          1           0        0.000000    0.946949   -1.123890
      4          1           0        0.000000   -0.946949   -1.123890
 ---------------------------------------------------------------------

 The electronic state is 1-A1.
 Alpha  occ. eigenvalues --  -19.22801 -10.32793  -1.08335  -0.64362  -0.51127
 Alpha  occ. eigenvalues --   -0.46726  -0.42027  -0.28170
 Alpha virt. eigenvalues --   -0.03458   0.08067   0.14745   0.20958   0.46104
 Alpha virt. eigenvalues --    0.47367   0.57043   0.62146   0.65351   0.70061
 Alpha virt. eigenvalues --    0.91479   1.01869   1.12428   1.30585   1.59149

 Mulliken charges:
               1
     1  C   -0.008287
     2  O   -0.211194
     3  H    0.109740
     4  H    0.109740
 Sum of Mulliken charges =   0.00000

 Dipole moment (field-independent basis, Debye):
    X=              0.0000    Y=              0.0000    Z=             -2.1701  Tot=              2.1701
 Quadrupole moment (field-independent basis, Debye-Ang):
   XX=            -11.4301   YY=            -11.5652   ZZ=            -12.0338
   XY=              0.0000   XZ=              0.0000   YZ=              0.0000

 1\1\GINC-HPC-CN12\FOpt\RPBE1PBE\Gen\C1H2O1\6498IVANOVM\02-Sep-2015\0\\
 #P PBE1PBE/gen opt\\formaldehyde\\0,1\C,0.,0.,0.0344986025\O,0.,0.,1.2
 300506906\H,0.9469493147,0.,-0.5667746465\H,-0.9469493147,0.,-0.566774
 6465\\Version=EM64L-G09RevD.01\State=1-A1\HF=-114.279533\RMSD=3.150e-0
 9\RMSF=2.293e-05\Dipole=0.,0.,-0.8537973\Quadrupole=0.0826623,0.183095
 1,-0.2657574,0.,0.,0.\PG=C02V [C2(C1O1),SGV(H2)]\\@

 Normal termination of Gaussian 09 at Wed Sep  2 15:34:04 2015.
