 Gaussian 09, Revision D.01,
 Gaussian 09:  EM64L-G09RevD.01 24-Apr-2013

 ------------------------
 #P b3lyp/aug-cc-pvdz opt
 ------------------------

 ------------
 formaldehyde
 ------------
 Symbolic Z-matrix:
 Charge =  0 Multiplicity = 1

 SCF Done:  E(RB3LYP) =  -114.519449080     A.U. after    9 cycles
 SCF Done:  E(RB3LYP) =  -114.520459868     A.U. after    8 cycles
 SCF Done:  E(RB3LYP) =  -114.520557001     A.U. after    8 cycles
 Optimization completed.
    -- Stationary point found.

                         Standard orientation:
 ---------------------------------------------------------------------
 Center     Atomic      Atomic             Coordinates (Angstroms)
 Number     Number       Type             X           Y           Z
 ---------------------------------------------------------------------
      1          6           0        0.000000    0.000000   -0.530292
      2          8           0        0.000000    0.000000    0.677164
      3          1           0        0.000000    0.947049   -1.117781
      4          1           0        0.000000   -0.947049   -1.117781
 ---------------------------------------------------------------------

 The electronic state is 1-A1.
 Alpha  occ. eigenvalues --  -19.17652 -10.29678  -1.07515  -0.64380  -0.50432
 Alpha  occ. eigenvalues --   -0.46355  -0.41166  -0.28060
 Alpha virt. eigenvalues --   -0.06566  -0.00955   0.01865   0.03515   0.05885
 Alpha virt. eigenvalues --    0.10214   0.10468   0.13101   0.14994   0.17161
 Alpha virt. eigenvalues --    0.18094   0.22042   0.22744   0.24939   0.32501

 Mulliken charges:
               1
     1  C    0.870539
     2  O   -0.348536
     3  H   -0.261002
     4  H   -0.261002
 Sum of Mulliken charges =   0.00000

 Dipole moment (field-independent basis, Debye):
    X=              0.0000    Y=              0.0000    Z=             -2.4089  Tot=              2.4089
 Quadrupole moment (field-independent basis, Debye-Ang):
   XX=            -11.7728   YY=            -11.7377   ZZ=            -12.4947
   XY=              0.0000   XZ=              0.0000   YZ=              0.0000

 Normal termination of Gaussian 09 at Wed Sep  2 15:14:29 2015.
