 Gaussian 09, Revision D.01,
 Gaussian 09:  EM64L-G09RevD.01 24-Apr-2013

 ------------------------
 #P b3lyp/aug-cc-pvdz opt
 ------------------------

 ------------
 methanethiol
 ------------
 Symbolic Z-matrix:
 Charge =  0 Multiplicity = 1

 SCF Done:  E(RB3LYP) =  -438.405709414     A.U. after   10 cycles
 SCF Done:  E(RB3LYP) =  -438.587165851     A.U. after   11 cycles
 SCF Done:  E(RB3LYP) =  -438.714185816     A.U. after   11 cycles
 SCF Done:  E(RB3LYP) =  -438.722153901     A.U. after   10 cycles
 SCF Done:  E(RB3LYP) =  -438.724658942     A.U. after    9 cycles
 SCF Done:  E(RB3LYP) =  -438.725665043     A.U. after    9 cycles
 SCF Done:  E(RB3LYP) =  -438.726244039     A.U. after    9 cycles
 SCF Done:  E(RB3LYP) =  -438.726483133     A.U. after    8 cycles
 SCF Done:  E(RB3LYP) =  -438.726537626     A.U. after    8 cycles
 SCF Done:  E(RB3LYP) =  -438.726543224     A.U. after    8 cycles
 Optimization completed.
    -- Stationary point found.

                         Standard orientation:
 ---------------------------------------------------------------------
 Center     Atomic      Atomic             Coordinates (Angstroms)
 Number     Number       Type             X           Y           Z
 ---------------------------------------------------------------------
      1         16           0       -0.048410   -0.672765    0.000000
      2          1           0        1.297757   -0.840774    0.000000
      3          6           0       -0.048410    1.167912    0.000000
      4          1           0       -1.101953    1.471101    0.000000
      5          1           0        0.434606    1.563223    0.900385
      6          1           0        0.434606    1.563223   -0.900385
 ---------------------------------------------------------------------

 The electronic state is 1-A'.
 Alpha  occ. eigenvalues --  -88.88387 -10.22020  -7.94447  -5.90880  -5.90532
 Alpha  occ. eigenvalues --   -5.89838  -0.78078  -0.64964  -0.45137  -0.43290
 Alpha  occ. eigenvalues --   -0.39429  -0.33742  -0.24317
 Alpha virt. eigenvalues --   -0.01988  -0.00141   0.02283   0.02345   0.03164
 Alpha virt. eigenvalues --    0.06279   0.07985   0.08696   0.08734   0.09862
 Alpha virt. eigenvalues --    0.09913   0.11094   0.13254   0.14491   0.15362

 Mulliken charges:
               1
     1  S    0.156232
     2  H    0.001700
     3  C    0.596837
     4  H   -0.258543
     5  H   -0.248113
     6  H   -0.248113
 Sum of Mulliken charges =   0.00000

 Dipole moment (field-independent basis, Debye):
    X=              0.7080    Y=              1.4182    Z=              0.0000  Tot=              1.5851
 Quadrupole moment (field-independent basis, Debye-Ang):
   XX=            -19.4745   YY=            -20.6050   ZZ=            -22.8952
   XY=             -1.2335   XZ=              0.0000   YZ=              0.0000

 Normal termination of Gaussian 09 at Wed Sep  2 14:56:17 2015.
