 Gaussian 09, Revision D.01,
 Gaussian 09:  EM64L-G09RevD.01 24-Apr-2013

 ------------------------
 #P b3lyp/aug-cc-pvdz opt
 ------------------------

 -----------
 methanimine
 -----------
 Symbolic Z-matrix:
 Charge =  0 Multiplicity = 1

 SCF Done:  E(RB3LYP) =  -94.6105503193     A.U. after   10 cycles
 SCF Done:  E(RB3LYP) =  -94.6409743005     A.U. after    9 cycles
 SCF Done:  E(RB3LYP) =  -94.6452469826     A.U. after    9 cycles
 SCF Done:  E(RB3LYP) =  -94.6455556086     A.U. after    9 cycles
 SCF Done:  E(RB3LYP) =  -94.6455669010     A.U. after    8 cycles
 SCF Done:  E(RB3LYP) =  -94.6455679739     A.U. after    7 cycles
 Optimization completed.
    -- Stationary point found.

                         Standard orientation:
 ---------------------------------------------------------------------
 Center     Atomic      Atomic             Coordinates (Angstroms)
 Number     Number       Type             X           Y           Z
 ---------------------------------------------------------------------
      1          6           0        0.056454    0.586873    0.000000
      2          1           0       -0.850071    1.213894    0.000000
      3          1           0        1.018407    1.115067    0.000000
      4          7           0        0.056454   -0.685601    0.000000
      5          1           0       -0.902242   -1.050995    0.000000
 ---------------------------------------------------------------------

 The electronic state is 1-A'.
 Alpha  occ. eigenvalues --  -14.34055 -10.24355  -0.91410  -0.62838  -0.50874
 Alpha  occ. eigenvalues --   -0.43674  -0.34204  -0.28013
 Alpha virt. eigenvalues --   -0.03579  -0.00989   0.01021   0.02473   0.06033
 Alpha virt. eigenvalues --    0.06859   0.09546   0.11085   0.12891   0.13556
 Alpha virt. eigenvalues --    0.14485   0.14616   0.19955   0.21613   0.22945

 Mulliken charges:
               1
     1  C    0.808704
     2  H   -0.269046
     3  H   -0.349599
     4  N   -0.146767
     5  H   -0.043292
 Sum of Mulliken charges =   0.00000

 Dipole moment (field-independent basis, Debye):
    X=             -1.3619    Y=              1.5070    Z=              0.0000  Tot=              2.0312
 Quadrupole moment (field-independent basis, Debye-Ang):
   XX=            -11.9270   YY=            -12.9987   ZZ=            -13.8261
   XY=              2.0774   XZ=              0.0000   YZ=              0.0000

 Normal termination of Gaussian 09 at Wed Sep  2 15:03:08 2015.
