 Gaussian 09, Revision D.01,
 Gaussian 09:  EM64L-G09RevD.01 24-Apr-2013

 ----------------------
 #P mp2/aug-cc-pvtz opt
 ----------------------

 --------
 methanol
 --------
 Symbolic Z-matrix:
 Charge =  0 Multiplicity = 1

 SCF Done:  E(RHF) =  -115.092242297     A.U. after   11 cycles
 E2 =    -0.4354632046D+00 EUMP2 =    -0.11552770550143D+03
 SCF Done:  E(RHF) =  -115.092024196     A.U. after   10 cycles
 E2 =    -0.4368952846D+00 EUMP2 =    -0.11552891948075D+03
 SCF Done:  E(RHF) =  -115.092100423     A.U. after    8 cycles
 E2 =    -0.4369021444D+00 EUMP2 =    -0.11552900256776D+03
 SCF Done:  E(RHF) =  -115.092058897     A.U. after    7 cycles
 E2 =    -0.4369482779D+00 EUMP2 =    -0.11552900717469D+03
 SCF Done:  E(RHF) =  -115.092035749     A.U. after    6 cycles
 E2 =    -0.4369719919D+00 EUMP2 =    -0.11552900774081D+03
 Optimization completed.
    -- Stationary point found.

                         Standard orientation:
 ---------------------------------------------------------------------
 Center     Atomic      Atomic             Coordinates (Angstroms)
 Number     Number       Type             X           Y           Z
 ---------------------------------------------------------------------
      1          8           0       -0.046749   -0.757680    0.000000
      2          1           0        0.867214   -1.055192    0.000000
      3          6           0       -0.046749    0.665943    0.000000
      4          1           0       -1.087634    0.975461    0.000000
      5          1           0        0.437453    1.072755    0.889319
      6          1           0        0.437453    1.072755   -0.889319
 ---------------------------------------------------------------------

 The electronic state is 1-A'.
 Alpha  occ. eigenvalues --  -20.55910 -11.27100  -1.35636  -0.92630  -0.69044
 Alpha  occ. eigenvalues --   -0.62062  -0.59254  -0.50486  -0.45218
 Alpha virt. eigenvalues --    0.02850   0.04299   0.04656   0.05299   0.09895
 Alpha virt. eigenvalues --    0.11666   0.12925   0.14002   0.16537   0.17321
 Alpha virt. eigenvalues --    0.18266   0.21125   0.21529   0.26780   0.27000

 Mulliken charges:
               1
     1  O   -0.503091
     2  H    0.193968
     3  C   -0.628632
     4  H    0.324277
     5  H    0.306739
     6  H    0.306739
 Sum of Mulliken charges =   0.00000

 Dipole moment (field-independent basis, Debye):
    X=              1.4443    Y=              1.0956    Z=              0.0000  Tot=              1.8128
 Quadrupole moment (field-independent basis, Debye-Ang):
   XX=            -11.6508   YY=            -13.4686   ZZ=            -13.7020
   XY=             -2.1441   XZ=              0.0000   YZ=              0.0000

 Normal termination of Gaussian 09 at Fri Oct 30 23:52:52 2015.
