 Gaussian 09, Revision D.01,
 Gaussian 09:  EM64L-G09RevD.01 24-Apr-2013

 ------------------
 #P PBE1PBE/gen opt
 ------------------

 --------
 methanol
 --------
 Symbolic Z-matrix:
 Charge =  0 Multiplicity = 1

 SCF Done:  E(RPBE1PBE) =  -115.479550707     A.U. after   11 cycles
 SCF Done:  E(RPBE1PBE) =  -115.481539221     A.U. after   11 cycles
 SCF Done:  E(RPBE1PBE) =  -115.481635344     A.U. after    8 cycles
 SCF Done:  E(RPBE1PBE) =  -115.481641101     A.U. after    7 cycles
 SCF Done:  E(RPBE1PBE) =  -115.481641626     A.U. after    6 cycles
 Optimization completed.
    -- Stationary point found.

                         Standard orientation:
 ---------------------------------------------------------------------
 Center     Atomic      Atomic             Coordinates (Angstroms)
 Number     Number       Type             X           Y           Z
 ---------------------------------------------------------------------
      1          8           0       -0.046462   -0.748548    0.000000
      2          1           0        0.869766   -1.058517    0.000000
      3          6           0       -0.046462    0.649797    0.000000
      4          1           0       -1.098862    0.977696    0.000000
      5          1           0        0.439784    1.085211    0.898813
      6          1           0        0.439784    1.085211   -0.898813
 ---------------------------------------------------------------------

 The electronic state is 1-A'.
 Alpha  occ. eigenvalues --  -19.19741 -10.26527  -1.03394  -0.69024  -0.52314
 Alpha  occ. eigenvalues --   -0.44971  -0.43698  -0.33995  -0.27941
 Alpha virt. eigenvalues --    0.06541   0.10737   0.14756   0.14961   0.21266
 Alpha virt. eigenvalues --    0.47526   0.49146   0.51190   0.62681   0.68903
 Alpha virt. eigenvalues --    0.70019   0.72454   0.74536   1.01138   1.03335

 Mulliken charges:
               1
     1  O   -0.494505
     2  H    0.316414
     3  C   -0.164491
     4  H    0.130904
     5  H    0.105839
     6  H    0.105839
 Sum of Mulliken charges =   0.00000

 Dipole moment (field-independent basis, Debye):
    X=              1.4981    Y=              0.8403    Z=              0.0000  Tot=              1.7177
 Quadrupole moment (field-independent basis, Debye-Ang):
   XX=            -11.6474   YY=            -13.0784   ZZ=            -13.5923
   XY=             -2.1748   XZ=              0.0000   YZ=              0.0000

 1\1\GINC-HPC-CN12\FOpt\RPBE1PBE\Gen\C1H4O1\6498IVANOVM\02-Sep-2015\0\\
 #P PBE1PBE/gen opt\\methanol\\0,1\O,-0.0218466554,0.,-0.0205291201\H,-
 0.0343150963,0.,0.9466312536\C,1.3084148243,0.,-0.4515406085\H,1.29596
 87619,0.,-1.5537690918\H,1.8725053647,0.898812975,-0.1231766131\H,1.87
 25053647,-0.898812975,-0.1231766131\\Version=EM64L-G09RevD.01\State=1-
 A'\HF=-115.4816416\RMSD=6.803e-09\RMSF=2.401e-05\Dipole=0.49618,0.,0.4
 588032\Quadrupole=-1.0744344,-0.6093283,1.6837627,0.,-0.9977059,0.\PG=
 CS [SG(C1H2O1),X(H2)]\\@

 Normal termination of Gaussian 09 at Wed Sep  2 15:38:21 2015.
