 Gaussian 09, Revision D.01,
 Gaussian 09:  EM64L-G09RevD.01 24-Apr-2013

 ------------------
 #P PBE1PBE/gen opt
 ------------------

 ------------
 methanethiol
 ------------
 Symbolic Z-matrix:
 Charge =  0 Multiplicity = 1

 SCF Done:  E(RPBE1PBE) =  -438.033969597     A.U. after   12 cycles
 SCF Done:  E(RPBE1PBE) =  -438.211855397     A.U. after   12 cycles
 SCF Done:  E(RPBE1PBE) =  -438.332696065     A.U. after   12 cycles
 SCF Done:  E(RPBE1PBE) =  -438.338304030     A.U. after   12 cycles
 SCF Done:  E(RPBE1PBE) =  -438.340500202     A.U. after   11 cycles
 SCF Done:  E(RPBE1PBE) =  -438.341302125     A.U. after   10 cycles
 SCF Done:  E(RPBE1PBE) =  -438.341770854     A.U. after    9 cycles
 SCF Done:  E(RPBE1PBE) =  -438.341924196     A.U. after    9 cycles
 SCF Done:  E(RPBE1PBE) =  -438.341955381     A.U. after    8 cycles
 SCF Done:  E(RPBE1PBE) =  -438.341957576     A.U. after    7 cycles
 Optimization completed.
    -- Stationary point found.

                         Standard orientation:
 ---------------------------------------------------------------------
 Center     Atomic      Atomic             Coordinates (Angstroms)
 Number     Number       Type             X           Y           Z
 ---------------------------------------------------------------------
      1         16           0       -0.047734   -0.661768    0.000000
      2          1           0        1.293843   -0.824838    0.000000
      3          6           0       -0.047734    1.141646    0.000000
      4          1           0       -1.105787    1.449998    0.000000
      5          1           0        0.431048    1.556623    0.902043
      6          1           0        0.431048    1.556623   -0.902043
 ---------------------------------------------------------------------

 The electronic state is 1-A'.
 Alpha  occ. eigenvalues --  -88.99146 -10.25478  -7.99412  -5.93668  -5.93308
 Alpha  occ. eigenvalues --   -5.92575  -0.79802  -0.65459  -0.46310  -0.44107
 Alpha  occ. eigenvalues --   -0.40394  -0.34234  -0.24262
 Alpha virt. eigenvalues --    0.03671   0.07717   0.10936   0.13096   0.13306
 Alpha virt. eigenvalues --    0.34979   0.41691   0.42016   0.43064   0.48531
 Alpha virt. eigenvalues --    0.61046   0.67886   0.68212   0.68294   0.70626

 Mulliken charges:
               1
     1  S   -0.198157
     2  H    0.151769
     3  C   -0.462687
     4  H    0.173419
     5  H    0.167828
     6  H    0.167828
 Sum of Mulliken charges =   0.00000

 Dipole moment (field-independent basis, Debye):
    X=              0.8565    Y=              1.2933    Z=              0.0000  Tot=              1.5512
 Quadrupole moment (field-independent basis, Debye-Ang):
   XX=            -18.9804   YY=            -20.2141   ZZ=            -22.1048
   XY=             -1.3364   XZ=              0.0000   YZ=              0.0000

 1\1\GINC-HPC-CN12\FOpt\RPBE1PBE\Gen\C1H4S1\6498IVANOVM\02-Sep-2015\0\\
 #P PBE1PBE/gen opt\\methanethiol\\0,1\S,-0.3328298654,0.,-0.0873880846
 \H,-0.1524251781,0.,1.2519681066\C,1.4123368879,0.,-0.542024537\H,1.44
 39971393,0.,-1.6436389948\H,1.9346106939,0.9020431431,-0.1833205876\H,
 1.9346106939,-0.9020431431,-0.1833205876\\Version=EM64L-G09RevD.01\Sta
 te=1-A'\HF=-438.3419576\RMSD=2.971e-09\RMSF=2.104e-05\Dipole=0.5773294
 ,0.,0.1978289\Quadrupole=-0.2636463,-1.2428804,1.5065267,0.,-0.64352,0
 .\PG=CS [SG(C1H2S1),X(H2)]\\@

 Normal termination of Gaussian 09 at Wed Sep  2 15:37:02 2015.
