 Gaussian 09, Revision D.01,
 Gaussian 09:  EM64L-G09RevD.01 24-Apr-2013

 ------------------
 #P PBE1PBE/gen opt
 ------------------

 -----------
 methanimine
 -----------
 Symbolic Z-matrix:
 Charge =  0 Multiplicity = 1

 SCF Done:  E(RPBE1PBE) =  -94.3912705587     A.U. after   12 cycles
 SCF Done:  E(RPBE1PBE) =  -94.4253756154     A.U. after   11 cycles
 SCF Done:  E(RPBE1PBE) =  -94.4302642055     A.U. after   11 cycles
 SCF Done:  E(RPBE1PBE) =  -94.4305932217     A.U. after   11 cycles
 SCF Done:  E(RPBE1PBE) =  -94.4306049243     A.U. after    8 cycles
 SCF Done:  E(RPBE1PBE) =  -94.4306060853     A.U. after    7 cycles
 Optimization completed.
    -- Stationary point found.

                         Standard orientation:
 ---------------------------------------------------------------------
 Center     Atomic      Atomic             Coordinates (Angstroms)
 Number     Number       Type             X           Y           Z
 ---------------------------------------------------------------------
      1          6           0        0.056321    0.581458    0.000000
      2          1           0       -0.848717    1.222833    0.000000
      3          1           0        1.021997    1.116529    0.000000
      4          7           0        0.056321   -0.683203    0.000000
      5          1           0       -0.905455   -1.045691    0.000000
 ---------------------------------------------------------------------

 The electronic state is 1-A'.
 Alpha  occ. eigenvalues --  -14.38426 -10.27684  -0.92295  -0.63152  -0.51718
 Alpha  occ. eigenvalues --   -0.44119  -0.34810  -0.27897
 Alpha virt. eigenvalues --   -0.00485   0.07578   0.10908   0.16013   0.27839
 Alpha virt. eigenvalues --    0.47177   0.50278   0.51705   0.59680   0.66146
 Alpha virt. eigenvalues --    0.69440   0.73676   0.81844   0.83151   1.01356

 Mulliken charges:
               1
     1  C   -0.193221
     2  H    0.123068
     3  H    0.141292
     4  N   -0.292835
     5  H    0.221696
 Sum of Mulliken charges =   0.00000

 Dipole moment (field-independent basis, Debye):
    X=             -1.4767    Y=              1.3214    Z=              0.0000  Tot=              1.9816
 Quadrupole moment (field-independent basis, Debye-Ang):
   XX=            -11.5981   YY=            -12.6448   ZZ=            -13.3102
   XY=              2.0006   XZ=              0.0000   YZ=              0.0000

 1\1\GINC-HPC-CN12\FOpt\RPBE1PBE\Gen\C1H3N1\6498IVANOVM\02-Sep-2015\0\\
 #P PBE1PBE/gen opt\\methanimine\\0,1\C,0.0317548651,0.,-0.1187223351\H
 ,-0.1903006573,0.,0.9680834691\H,1.1023217387,0.,-0.3883826823\N,-0.83
 28100104,0.,-1.0417046539\H,-1.7825478677,0.,-0.6487552767\\Version=EM
 64L-G09RevD.01\State=1-A'\HF=-94.4306061\RMSD=5.417e-09\RMSF=2.937e-05
 \Dipole=-0.0686185,0.,0.776611\Quadrupole=1.8042399,-0.5892019,-1.2150
 381,0.,-0.2911594,0.\PG=CS [SG(C1H3N1)]\\@

 Normal termination of Gaussian 09 at Wed Sep  2 15:35:57 2015.
