 Gaussian 09, Revision D.01,
 Gaussian 09:  EM64L-G09RevD.01 24-Apr-2013

 ------------------------
 #P b3lyp/aug-cc-pvdz opt
 ------------------------

 --------
 methanol
 --------
 Symbolic Z-matrix:
 Charge =  0 Multiplicity = 1

 SCF Done:  E(RB3LYP) =  -115.740650946     A.U. after    9 cycles
 SCF Done:  E(RB3LYP) =  -115.742336454     A.U. after    9 cycles
 SCF Done:  E(RB3LYP) =  -115.742399070     A.U. after    8 cycles
 SCF Done:  E(RB3LYP) =  -115.742401956     A.U. after    7 cycles
 SCF Done:  E(RB3LYP) =  -115.742402450     A.U. after    7 cycles
 Optimization completed.
    -- Stationary point found.

                         Standard orientation:
 ---------------------------------------------------------------------
 Center     Atomic      Atomic             Coordinates (Angstroms)
 Number     Number       Type             X           Y           Z
 ---------------------------------------------------------------------
      1          8           0       -0.046545   -0.759395    0.000000
      2          1           0        0.865507   -1.071359    0.000000
      3          6           0       -0.046545    0.667528    0.000000
      4          1           0       -1.097370    0.980560    0.000000
      5          1           0        0.441747    1.080394    0.898194
      6          1           0        0.441747    1.080394   -0.898194
 ---------------------------------------------------------------------

 The electronic state is 1-A'.
 Alpha  occ. eigenvalues --  -19.15367 -10.23273  -1.02602  -0.68789  -0.51315
 Alpha  occ. eigenvalues --   -0.44349  -0.43091  -0.34455  -0.28396
 Alpha virt. eigenvalues --   -0.01470   0.00585   0.02447   0.02965   0.06355
 Alpha virt. eigenvalues --    0.08417   0.10285   0.10817   0.12731   0.14471
 Alpha virt. eigenvalues --    0.15439   0.16053   0.16470   0.19448   0.22350

 Mulliken charges:
               1
     1  O   -0.380861
     2  H    0.069428
     3  C    1.223726
     4  H   -0.347829
     5  H   -0.282232
     6  H   -0.282232
 Sum of Mulliken charges =   0.00000

 Dipole moment (field-independent basis, Debye):
    X=              1.3470    Y=              0.9644    Z=              0.0000  Tot=              1.6567
 Quadrupole moment (field-independent basis, Debye-Ang):
   XX=            -12.0108   YY=            -13.6694   ZZ=            -14.0337
   XY=             -2.1167   XZ=              0.0000   YZ=              0.0000

 Normal termination of Gaussian 09 at Wed Sep  2 14:53:52 2015.
