 Gaussian 09, Revision D.01,
 Gaussian 09:  EM64L-G09RevD.01 24-Apr-2013

 ------------------------
 #P b3lyp/aug-cc-pvdz opt
 ------------------------

 -----------
 trans-mesno
 -----------
 Symbolic Z-matrix:
 Charge =  0 Multiplicity = 1

 SCF Done:  E(RB3LYP) =  -567.966988748     A.U. after   14 cycles
 SCF Done:  E(RB3LYP) =  -568.016898797     A.U. after   12 cycles
 SCF Done:  E(RB3LYP) =  -568.016723868     A.U. after   13 cycles
 SCF Done:  E(RB3LYP) =  -568.027317871     A.U. after   11 cycles
 SCF Done:  E(RB3LYP) =  -568.039886463     A.U. after   11 cycles
 SCF Done:  E(RB3LYP) =  -568.043704613     A.U. after   12 cycles
 SCF Done:  E(RB3LYP) =  -568.045107620     A.U. after   12 cycles
 SCF Done:  E(RB3LYP) =  -568.045621525     A.U. after   11 cycles
 SCF Done:  E(RB3LYP) =  -568.045681289     A.U. after   10 cycles
 SCF Done:  E(RB3LYP) =  -568.045692175     A.U. after   10 cycles
 SCF Done:  E(RB3LYP) =  -568.045694942     A.U. after    9 cycles
 Optimization completed.
    -- Stationary point found.

                         Standard orientation:
 ---------------------------------------------------------------------
 Center     Atomic      Atomic             Coordinates (Angstroms)
 Number     Number       Type             X           Y           Z
 ---------------------------------------------------------------------
      1          8           0       -1.692547   -1.181277    0.000000
      2          7           0       -0.523893   -0.991699    0.000000
      3         16           0        0.000000    0.788128    0.000000
      4          6           0        1.793200    0.436114    0.000000
      5          1           0        2.304322    1.406235    0.000000
      6          1           0        2.072053   -0.120423    0.901299
      7          1           0        2.072053   -0.120423   -0.901299
 ---------------------------------------------------------------------

 The electronic state is 1-A'.
 Alpha  occ. eigenvalues --  -88.91538 -19.23976 -14.49436 -10.23231  -7.97562
 Alpha  occ. eigenvalues --   -5.93894  -5.93598  -5.93083  -1.20826  -0.82024
 Alpha  occ. eigenvalues --   -0.71257  -0.62138  -0.51015  -0.49051  -0.48472
 Alpha  occ. eigenvalues --   -0.44645  -0.43109  -0.37244  -0.27083  -0.25018
 Alpha virt. eigenvalues --   -0.10636  -0.03443  -0.01140   0.01134   0.02072
 Alpha virt. eigenvalues --    0.02195   0.06068   0.06558   0.07612   0.08123
 Alpha virt. eigenvalues --    0.08641   0.08814   0.10849   0.11961   0.12773

 Mulliken charges:
               1
     1  O   -0.386390
     2  N    0.034566
     3  S    0.382310
     4  C    0.619140
     5  H   -0.234407
     6  H   -0.207609
     7  H   -0.207609
 Sum of Mulliken charges =   0.00000

 Dipole moment (field-independent basis, Debye):
    X=              2.3014    Y=              0.6998    Z=              0.0000  Tot=              2.4054
 Quadrupole moment (field-independent basis, Debye-Ang):
   XX=            -29.5492   YY=            -32.6383   ZZ=            -30.8488
   XY=              0.2299   XZ=              0.0000   YZ=              0.0000

 Normal termination of Gaussian 09 at Mon Sep 21 22:16:05 2015.
