 Gaussian 09, Revision D.01,
 Gaussian 09:  EM64L-G09RevD.01 24-Apr-2013

 ------------------------------------------------------------
 #P PBE1PBE/gen scrf(pcm,solvent=diethylether) scf(tight) opt
 ------------------------------------------------------------

 -----------
 trans-mesno
 -----------
 Symbolic Z-matrix:
 Charge =  0 Multiplicity = 1

 SCF Done:  E(RPBE1PBE) =  -567.330679939     A.U. after   15 cycles
 SCF Done:  E(RPBE1PBE) =  -567.382253721     A.U. after   12 cycles
 SCF Done:  E(RPBE1PBE) =  -567.382101807     A.U. after   13 cycles
 SCF Done:  E(RPBE1PBE) =  -567.393964423     A.U. after   11 cycles
 SCF Done:  E(RPBE1PBE) =  -567.403709854     A.U. after   12 cycles
 SCF Done:  E(RPBE1PBE) =  -567.408279102     A.U. after   12 cycles
 SCF Done:  E(RPBE1PBE) =  -567.409161750     A.U. after   11 cycles
 SCF Done:  E(RPBE1PBE) =  -567.409655942     A.U. after   11 cycles
 SCF Done:  E(RPBE1PBE) =  -567.409682601     A.U. after   10 cycles
 SCF Done:  E(RPBE1PBE) =  -567.409685111     A.U. after    9 cycles
 Optimization completed.
    -- Stationary point found.

                         Standard orientation:
 ---------------------------------------------------------------------
 Center     Atomic      Atomic             Coordinates (Angstroms)
 Number     Number       Type             X           Y           Z
 ---------------------------------------------------------------------
      1          8           0       -1.671531   -1.148150    0.000000
      2          7           0       -0.508068   -0.948317    0.000000
      3         16           0        0.000000    0.758087    0.000000
      4          6           0        1.759494    0.425136    0.000000
      5          1           0        2.265578    1.403947    0.000000
      6          1           0        2.053088   -0.130365    0.904250
      7          1           0        2.053088   -0.130365   -0.904250
 ---------------------------------------------------------------------

 The electronic state is 1-A'.
 Alpha  occ. eigenvalues --  -89.03222 -19.28250 -14.53165 -10.26304  -8.03474
 Alpha  occ. eigenvalues --   -5.97619  -5.97274  -5.96797  -1.21656  -0.85002
 Alpha  occ. eigenvalues --   -0.72214  -0.61716  -0.52118  -0.50046  -0.49407
 Alpha  occ. eigenvalues --   -0.45172  -0.43277  -0.38195  -0.27773  -0.24743
 Alpha virt. eigenvalues --   -0.08302   0.00484   0.07315   0.10693   0.12534
 Alpha virt. eigenvalues --    0.13495   0.29008   0.38219   0.40327   0.43205
 Alpha virt. eigenvalues --    0.47994   0.55214   0.58551   0.61923   0.65244

 Mulliken charges:
               1
     1  O   -0.174076
     2  N   -0.039250
     3  S    0.085657
     4  C   -0.445623
     5  H    0.192817
     6  H    0.190237
     7  H    0.190237
 Sum of Mulliken charges =   0.00000

 Dipole moment (field-independent basis, Debye):
    X=              2.7886    Y=              1.1962    Z=              0.0000  Tot=              3.0343
 Quadrupole moment (field-independent basis, Debye-Ang):
   XX=            -29.1348   YY=            -32.0885   ZZ=            -29.8554
   XY=              0.0575   XZ=              0.0000   YZ=              0.0000

 Normal termination of Gaussian 09 at Wed Oct 14 11:17:23 2015.
