 Gaussian 09, Revision D.01,
 Gaussian 09:  EM64L-G09RevD.01 24-Apr-2013

 ------------------
 #P PBE1PBE/gen opt
 ------------------

 -----------
 trans-mesno
 -----------
 Symbolic Z-matrix:
 Charge =  0 Multiplicity = 1

 SCF Done:  E(RPBE1PBE) =  -567.325912881     A.U. after   17 cycles
 SCF Done:  E(RPBE1PBE) =  -567.378020461     A.U. after   15 cycles
 SCF Done:  E(RPBE1PBE) =  -567.379458582     A.U. after   17 cycles
 SCF Done:  E(RPBE1PBE) =  -567.402270435     A.U. after   15 cycles
 SCF Done:  E(RPBE1PBE) =  -567.406041973     A.U. after   15 cycles
 SCF Done:  E(RPBE1PBE) =  -567.406954593     A.U. after   15 cycles
 SCF Done:  E(RPBE1PBE) =  -567.407299685     A.U. after   14 cycles
 SCF Done:  E(RPBE1PBE) =  -567.407396087     A.U. after   13 cycles
 SCF Done:  E(RPBE1PBE) =  -567.407408809     A.U. after   10 cycles
 SCF Done:  E(RPBE1PBE) =  -567.407410170     A.U. after    9 cycles
 Optimization completed.
    -- Stationary point found.

                         Standard orientation:
 ---------------------------------------------------------------------
 Center     Atomic      Atomic             Coordinates (Angstroms)
 Number     Number       Type             X           Y           Z
 ---------------------------------------------------------------------
      1          8           0       -1.666530   -1.158881    0.000000
      2          7           0       -0.509702   -0.955787    0.000000
      3         16           0        0.000000    0.772911    0.000000
      4          6           0        1.755576    0.416569    0.000000
      5          1           0        2.279621    1.386090    0.000000
      6          1           0        2.043536   -0.145266    0.902557
      7          1           0        2.043536   -0.145266   -0.902557
 ---------------------------------------------------------------------

 The electronic state is 1-A'.
 Alpha  occ. eigenvalues --  -89.02879 -19.28560 -14.53337 -10.26859  -8.03132
 Alpha  occ. eigenvalues --   -5.97271  -5.96949  -5.96442  -1.22181  -0.84701
 Alpha  occ. eigenvalues --   -0.72204  -0.61872  -0.52244  -0.50221  -0.49488
 Alpha  occ. eigenvalues --   -0.45655  -0.43798  -0.38373  -0.27566  -0.24608
 Alpha virt. eigenvalues --   -0.08179   0.00072   0.06668   0.10190   0.11653
 Alpha virt. eigenvalues --    0.12688   0.29201   0.38303   0.39897   0.42823
 Alpha virt. eigenvalues --    0.47958   0.55284   0.58675   0.61638   0.65232

 Mulliken charges:
               1
     1  O   -0.145281
     2  N   -0.028814
     3  S    0.072860
     4  C   -0.442754
     5  H    0.180154
     6  H    0.181918
     7  H    0.181918
 Sum of Mulliken charges =   0.00000

 Dipole moment (field-independent basis, Debye):
    X=              2.2671    Y=              0.8411    Z=              0.0000  Tot=              2.4181
 Quadrupole moment (field-independent basis, Debye-Ang):
   XX=            -29.2064   YY=            -32.0144   ZZ=            -29.9795
   XY=              0.1430   XZ=              0.0000   YZ=              0.0000

 Normal termination of Gaussian 09 at Thu Sep 17 12:30:35 2015.
