 Gaussian 09, Revision D.01,
 Gaussian 09:  EM64L-G09RevD.01 24-Apr-2013

 ----------------------
 #P mp2/aug-cc-pvtz opt
 ----------------------

 ------
 uracil
 ------
 Symbolic Z-matrix:
 Charge =  0 Multiplicity = 1

 SCF Done:  E(RHF) =  -412.538630907     A.U. after   14 cycles
 E2 =    -0.1483256537D+01 EUMP2 =    -0.41402188744400D+03
 SCF Done:  E(RHF) =  -412.608514038     A.U. after   12 cycles
 E2 =    -0.1491548464D+01 EUMP2 =    -0.41410006250271D+03
 SCF Done:  E(RHF) =  -412.623694076     A.U. after   12 cycles
 E2 =    -0.1497028493D+01 EUMP2 =    -0.41412072256882D+03
 SCF Done:  E(RHF) =  -412.624642411     A.U. after   11 cycles
 E2 =    -0.1500329572D+01 EUMP2 =    -0.41412497198289D+03
 SCF Done:  E(RHF) =  -412.624662054     A.U. after   10 cycles
 E2 =    -0.1500759992D+01 EUMP2 =    -0.41412542204642D+03
 SCF Done:  E(RHF) =  -412.624429208     A.U. after    9 cycles
 E2 =    -0.1501046224D+01 EUMP2 =    -0.41412547543232D+03
 SCF Done:  E(RHF) =  -412.624388509     A.U. after    7 cycles
 E2 =    -0.1501088084D+01 EUMP2 =    -0.41412547659303D+03
 Optimization completed.
    -- Stationary point found.

                         Standard orientation:
 ---------------------------------------------------------------------
 Center     Atomic      Atomic             Coordinates (Angstroms)
 Number     Number       Type             X           Y           Z
 ---------------------------------------------------------------------
      1          7           0       -1.137597    1.023389    0.000000
      2          6           0        0.052873    1.702481    0.000000
      3          6           0        1.239776    1.061509    0.000000
      4          6           0        1.273563   -0.390194    0.000000
      5          7           0        0.000000   -0.979197    0.000000
      6          6           0       -1.231167   -0.358130    0.000000
      7          1           0       -0.025803    2.780077    0.000000
      8          1           0        2.172064    1.600865    0.000000
      9          8           0        2.275632   -1.087380    0.000000
     10          1           0       -0.023368   -1.990850    0.000000
     11          8           0       -2.294566   -0.950751    0.000000
     12          1           0       -2.018509    1.511613    0.000000
 ---------------------------------------------------------------------

 The electronic state is 1-A'.
 Alpha  occ. eigenvalues --  -20.54774 -20.54247 -15.64577 -15.62878 -11.41981
 Alpha  occ. eigenvalues --  -11.38199 -11.34212 -11.25684  -1.43608  -1.39786
 Alpha  occ. eigenvalues --   -1.31373  -1.24647  -1.08941  -0.93435  -0.90212
 Alpha  occ. eigenvalues --   -0.80782  -0.76588  -0.71542  -0.67808  -0.66945
 Alpha  occ. eigenvalues --   -0.65330  -0.61547  -0.60247  -0.57102  -0.52651
 Alpha  occ. eigenvalues --   -0.48428  -0.45013  -0.43753  -0.37002
 Alpha virt. eigenvalues --    0.01421   0.03366   0.04090   0.05080   0.05707
 Alpha virt. eigenvalues --    0.07725   0.07977   0.08705   0.09336   0.09989
 Alpha virt. eigenvalues --    0.10632   0.10737   0.11547   0.12226   0.12405

 Mulliken charges:
               1
     1  N    0.001433
     2  C   -0.308366
     3  C   -0.237749
     4  C    0.458762
     5  N    0.212950
     6  C    0.130332
     7  H    0.727727
     8  H    0.298191
     9  O   -0.818912
    10  H    0.174126
    11  O   -0.753248
    12  H    0.114754
 Sum of Mulliken charges =   0.00000

 Dipole moment (field-independent basis, Debye):
    X=             -1.1911    Y=              4.8947    Z=              0.0000  Tot=              5.0376
 Quadrupole moment (field-independent basis, Debye-Ang):
   XX=            -60.2587   YY=            -38.0054   ZZ=            -46.6478
   XY=             -1.7290   XZ=              0.0000   YZ=              0.0000

 Normal termination of Gaussian 09 at Sat Oct 31 07:33:03 2015.
