 Gaussian 09, Revision D.01,
 Gaussian 09:  EM64L-G09RevD.01 24-Apr-2013

 ----------------------
 #P mp2/aug-cc-pvtz opt
 ----------------------

 -----
 water
 -----
 Symbolic Z-matrix:
 Charge =  0 Multiplicity = 1

 SCF Done:  E(RHF) =  -76.0607757524     A.U. after   10 cycles
 E2 =    -0.2673531563D+00 EUMP2 =    -0.76328128908687D+02
 SCF Done:  E(RHF) =  -76.0605693256     A.U. after    9 cycles
 E2 =    -0.2683922242D+00 EUMP2 =    -0.76328961549737D+02
 SCF Done:  E(RHF) =  -76.0602888607     A.U. after    8 cycles
 E2 =    -0.2687034514D+00 EUMP2 =    -0.76328992312120D+02
 Optimization completed.
    -- Stationary point found.

                         Standard orientation:
 ---------------------------------------------------------------------
 Center     Atomic      Atomic             Coordinates (Angstroms)
 Number     Number       Type             X           Y           Z
 ---------------------------------------------------------------------
      1          8           0        0.000000    0.118211    0.000000
      2          1           0        0.758114   -0.472821    0.000000
      3          1           0       -0.758114   -0.472865    0.000000
 ---------------------------------------------------------------------

 The electronic state is 1-A'.
 Alpha  occ. eigenvalues --  -20.56808  -1.35180  -0.71486  -0.58495  -0.51014
 Alpha virt. eigenvalues --    0.02937   0.04769   0.13589   0.15878   0.17516
 Alpha virt. eigenvalues --    0.18308   0.22713   0.24492   0.26539   0.30002
 Alpha virt. eigenvalues --    0.31014   0.36578   0.43734   0.46604   0.59919

 Mulliken charges:
               1
     1  O   -0.444701
     2  H    0.222338
     3  H    0.222362
 Sum of Mulliken charges =   0.00000

 Dipole moment (field-independent basis, Debye):
    X=              0.0000    Y=             -1.9924    Z=              0.0000  Tot=              1.9924
 Quadrupole moment (field-independent basis, Debye-Ang):
   XX=             -4.2534   YY=             -6.2347   ZZ=             -7.5667
   XY=              0.0001   XZ=              0.0000   YZ=              0.0000

 Normal termination of Gaussian 09 at Fri Oct 30 23:44:04 2015.
