 Q-Chem 4.3, Q-Chem, Inc., Pleasanton, CA (2015)
 Q-Chem 4.3.0 for Intel X86 Linux

User input:
--------------------------------------------------------------
$molecule
0 1
O         -0.04655       -0.75940        0.00000
H          0.86551       -1.07136        0.00000
C         -0.04655        0.66753        0.00000
H         -1.09737        0.98056        0.00000
H          0.44175        1.08039        0.89819
H          0.44175        1.08039       -0.89819
$end

$rem
jobtype     sp
METHOD      b3lyp
BASIS       aug-cc-pvdz
thresh      14
scf_convergence 11
xc_grid     99000590
IGDESP      +194
MULTIPOLE_ORDER  10
MM_CHARGES  TRUE
SYM_IGNORE  TRUE
$end

--------------------------------------------------------------

             Standard Nuclear Orientation (Angstroms)
    I     Atom           X                Y                Z
 ----------------------------------------------------------------
    1      O      -0.0465500000    -0.7594000000     0.0000000000
    2      H       0.8655100000    -1.0713600000     0.0000000000
    3      C      -0.0465500000     0.6675300000     0.0000000000
    4      H      -1.0973700000     0.9805600000     0.0000000000
    5      H       0.4417500000     1.0803900000     0.8981900000
    6      H       0.4417500000     1.0803900000    -0.8981900000
 ----------------------------------------------------------------

   15    -115.7424007056      2.68E-12 Convergence criterion met
 Total energy in the final basis set = -115.7424007056

                    Orbital Energies (a.u.)
 --------------------------------------------------------------

 Alpha MOs
 -- Occupied --
-19.154 -10.233  -1.026  -0.688  -0.513  -0.443  -0.431  -0.345
 -0.284

          Ground-State Mulliken Net Atomic Charges

     Atom                 Charge (a.u.)
  ----------------------------------------
      1 O                    -0.380854
      2 H                     0.069436
      3 C                     1.223649
      4 H                    -0.347884
      5 H                    -0.282174
      6 H                    -0.282174
  ----------------------------------------
  Sum of atomic charges =     0.000000

                    Cartesian Multipole Moments
                  LMN = < X^L Y^M Z^N >

 Total job time:  7.19s(wall), 54.07s(cpu)
        *  Thank you very much for using Q-Chem.  Have a nice day.  *
